 Gaussian 03, Revision B.04,
 Gaussian 03:  x86-Linux-G03RevB.04 2-Jun-2003

 -------------------
 # B3LYP/6-31+G* Opt
 -------------------

 ----------------------------
 /Users/ghutchis/benzene.mol2
 ----------------------------
 Symbolic Z-matrix:
 Charge =  0 Multiplicity = 1

 SCF Done:  E(RB+HF-LYP) =  -232.258857961     A.U. after   10 cycles
 SCF Done:  E(RB+HF-LYP) =  -232.258929166     A.U. after   12 cycles
 Optimization completed.
    -- Stationary point found.

                         Standard orientation:
 ---------------------------------------------------------------------
 Center     Atomic     Atomic              Coordinates (Angstroms)
 Number     Number      Type              X           Y           Z
 ---------------------------------------------------------------------
    1          6             0       -1.211500   -0.699453    0.000000
    2          1             0       -2.153242   -1.243222    0.000000
    3          6             0       -1.211488    0.699429    0.000000
    4          1             0       -2.153270    1.243117    0.000000
    5          6             0        0.000000    1.398869    0.000000
    6          1             0        0.000072    2.486318    0.000000
    7          6             0        1.211505    0.699463    0.000000
    8          1             0        2.153267    1.243205    0.000000
    9          6             0        1.211483   -0.699428    0.000000
   10          1             0        2.153266   -1.243116    0.000000
   11          6             0       -0.000007   -1.398876    0.000000
   12          1             0       -0.000053   -2.486327    0.000000
 ---------------------------------------------------------------------

 The electronic state is 1-A'.
 Alpha  occ. eigenvalues --  -10.19883 -10.19856 -10.19856 -10.19801 -10.19801
 Alpha  occ. eigenvalues --  -10.19775  -0.85656  -0.74976  -0.74975  -0.60690
 Alpha  occ. eigenvalues --   -0.60689  -0.52731  -0.46774  -0.44843  -0.42661
 Alpha  occ. eigenvalues --   -0.42660  -0.36917  -0.34975  -0.34974  -0.25704
 Alpha  occ. eigenvalues --   -0.25704
 Alpha virt. eigenvalues --   -0.01451  -0.01449   0.00891   0.02620   0.02620
 Alpha virt. eigenvalues --    0.04593   0.04593   0.06680   0.07801   0.07964
 Alpha virt. eigenvalues --    0.09213   0.09237   0.09976   0.12667   0.14266

 Mulliken atomic charges:
              1
     1  C   -0.177800
     2  H    0.178005
     3  C   -0.177845
     4  H    0.178003
     5  C   -0.178396
     6  H    0.178021
     7  C   -0.177791
     8  H    0.178007
     9  C   -0.177842
    10  H    0.178001
    11  C   -0.178386
    12  H    0.178022
 Sum of Mulliken charges=   0.00000

 Dipole moment (field-independent basis, Debye):
    X=     0.0000    Y=     0.0000    Z=     0.0000  Tot=     0.0000
 Quadrupole moment (field-independent basis, Debye-Ang):
   XX=   -32.1971   YY=   -32.1974   ZZ=   -40.4406
   XY=     0.0007   XZ=     0.0000   YZ=     0.0000

 Normal termination of Gaussian 03 at Tue Apr  5 22:28:01 2005.
