 Gaussian 03, Revision B.04,
 Gaussian 03:  x86-Linux-G03RevB.04 2-Jun-2003

 ----------------------------------
 # PBEPBE/6-31g(d,p)/Auto SCF=Tight
 ----------------------------------

 --------
 graphite
 --------
 Symbolic Z-matrix:
 Charge =  0 Multiplicity = 1

                          Input orientation:
 ---------------------------------------------------------------------
 Center     Atomic     Atomic              Coordinates (Angstroms)
 Number     Number      Type              X           Y           Z
 ---------------------------------------------------------------------
    1          6             0        0.000000   -0.714559    0.000000
    2          6             0        0.000000    0.714559    0.000000
    3         -2             0        2.475315    0.000000    0.000000
    4         -2             0       -1.219952    2.133447    0.000000
 ---------------------------------------------------------------------

 SCF Done:  E(RPBE-PBE) =  -76.1487226744     A.U. after   11 cycles

 Alpha  occ. eigenvalues --   -9.92676  -9.92590  -0.85859  -0.41832  -0.25998
 Alpha  occ. eigenvalues --   -0.24584
 Alpha virt. eigenvalues --    0.15049   0.17522   0.27880   0.31556   0.43064
 Alpha virt. eigenvalues --    0.46873   1.31155   1.32463   1.42572   1.43956
 Alpha virt. eigenvalues --    1.46232   1.47827   1.55303   1.55483   1.90212

 Mulliken atomic charges:
              1
     1  C    0.000000
     2  C    0.000000
 Sum of Mulliken charges=   0.00000

 Dipole moment (field-independent basis, Debye):
    X=     0.0000    Y=     0.0000    Z=     0.0000  Tot=     0.0000
 1\1\GINC-NODE16\SP\RPBEPBE\6-31G(d,p)/Auto\C2\GHUTCHIS\01-Apr-2005\0\\
 # PBEPBE/6-31G(D,P)/AUTO SCF=TIGHT\\graphite\\0,1\C,0.,-0.714559,0.\C,
 0.,0.714559,0.\TV,2.475315,0.,0.\TV,-1.219952,2.133447,0.\\Version=x86
 -Linux-G03RevB.04\HF=-76.1487227\RMSD=7.361e-09\Dipole=0.,0.,0.\PG=C01
  [X(C2)]\\@

 PERICLES, SOPHOCLES,
 PELOPONESIAN WAR,
 FRENCH VERBS, LATIN VERBS

 Normal termination of Gaussian 03 at Fri Apr  1 20:05:05 2005.
