 Gaussian 03, Revision B.04,
 Gaussian 03:  x86-Linux-G03RevB.04 2-Jun-2003

 ------------------
 # B3LYP/6-31G* Opt
 ------------------

 -----------------------------------
 /Users/ghutchis/heterocycle-05.mol2
 -----------------------------------
 Symbolic Z-matrix:
 Charge =  0 Multiplicity = 1

 SCF Done:  E(RB+HF-LYP) =  -3750.64245933     A.U. after   16 cycles
 SCF Done:  E(RB+HF-LYP) =  -3751.09548291     A.U. after   16 cycles
 SCF Done:  E(RB+HF-LYP) =  -3751.46331381     A.U. after   16 cycles
 SCF Done:  E(RB+HF-LYP) =  -3751.64404250     A.U. after   16 cycles
 SCF Done:  E(RB+HF-LYP) =  -3751.71858624     A.U. after   16 cycles
 SCF Done:  E(RB+HF-LYP) =  -3751.78665059     A.U. after   16 cycles
 SCF Done:  E(RB+HF-LYP) =  -3751.80706378     A.U. after   17 cycles
 SCF Done:  E(RB+HF-LYP) =  -3751.84013031     A.U. after   16 cycles
 SCF Done:  E(RB+HF-LYP) =  -3751.84191082     A.U. after   16 cycles
 SCF Done:  E(RB+HF-LYP) =  -3751.84864525     A.U. after   16 cycles
 SCF Done:  E(RB+HF-LYP) =  -3751.86265369     A.U. after   10 cycles
 SCF Done:  E(RB+HF-LYP) =  -3751.86265418     A.U. after    7 cycles
 SCF Done:  E(RB+HF-LYP) =  -3751.86265381     A.U. after    8 cycles
 SCF Done:  E(RB+HF-LYP) =  -3751.86265430     A.U. after    8 cycles
 SCF Done:  E(RB+HF-LYP) =  -3751.86265447     A.U. after    7 cycles
 SCF Done:  E(RB+HF-LYP) =  -3751.86265452     A.U. after    8 cycles
 SCF Done:  E(RB+HF-LYP) =  -3751.86265467     A.U. after    8 cycles
 SCF Done:  E(RB+HF-LYP) =  -3751.86265471     A.U. after    7 cycles
 SCF Done:  E(RB+HF-LYP) =  -3751.86265469     A.U. after    7 cycles
 SCF Done:  E(RB+HF-LYP) =  -3751.86265472     A.U. after    7 cycles
 Optimization completed.
    -- Stationary point found.

                         Standard orientation:
 ---------------------------------------------------------------------
 Center     Atomic     Atomic              Coordinates (Angstroms)
 Number     Number      Type              X           Y           Z
 ---------------------------------------------------------------------
    1          6             0       -3.822158   -0.964114    0.015525
    2          6             0       -4.719344    0.008789    0.387022
    3          6             0       -2.527716   -0.349907   -0.087282
    4          6             0       -2.704707    1.020896    0.238309
    5          6             0       -1.252567   -0.820530   -0.424006
    6          6             0       -0.159046    0.044520   -0.440616
    7          6             0       -0.384514    1.404103   -0.107215
    8          6             0       -1.629169    1.914408    0.230758
    9          7             0       -4.033192    1.215929    0.523777
   10          8             0       -4.013059   -2.286295   -0.230841
   11          1             0       -5.781438   -0.043136    0.569557
   12          1             0       -1.113017   -1.867373   -0.679374
   13          6             0        1.213336   -0.490570   -0.792015
   14         35             0        1.089658    2.638214   -0.119143
   15          1             0       -1.749353    2.964429    0.473838
   16          1             0       -4.457916    2.094727    0.772470
   17          6             0        2.060175   -0.734195    0.469366
   18          1             0        1.105439   -1.434598   -1.334470
   19          1             0        1.745665    0.208759   -1.444555
   20         16             0        3.655188   -1.468995    0.045017
   21          1             0        2.276133    0.198419    0.995471
   22          1             0        1.576479   -1.436775    1.153427
   23          8             0        3.431242   -2.785058   -0.540250
   24          8             0        4.515680   -0.485654   -0.617327
   25          8             0        4.263751   -1.678023    1.567582
   26          1             0        5.122071   -1.213716    1.580538
   27          6             0       -5.346364   -2.748330   -0.086331
   28          1             0       -5.331674   -3.815404   -0.314291
   29          1             0       -5.708111   -2.597365    0.940569
   30          1             0       -6.021423   -2.233249   -0.784272
 ---------------------------------------------------------------------

 The electronic state is 1-A.
 Alpha  occ. eigenvalues -- -482.91404 -89.12385 -61.87535 -56.39609 -56.39216
 Alpha  occ. eigenvalues --  -56.39200 -19.20198 -19.18436 -19.15001 -19.14833
 Alpha  occ. eigenvalues --  -14.38970 -10.24822 -10.24702 -10.24448 -10.23555
 Alpha  occ. eigenvalues --  -10.23176 -10.22611 -10.20957 -10.20795 -10.20789
 Alpha  occ. eigenvalues --  -10.20089 -10.19577  -8.58584  -8.14854  -6.53940
 Alpha  occ. eigenvalues --   -6.52694  -6.52668  -6.11468  -6.11228  -6.11079
 Alpha  occ. eigenvalues --   -2.65511  -2.65158  -2.65138  -2.64144  -2.64144
 Alpha  occ. eigenvalues --   -1.13693  -1.07062  -1.03390  -1.00662  -0.98795
 Alpha  occ. eigenvalues --   -0.87325  -0.81491  -0.80828  -0.77731  -0.75764
 Alpha  occ. eigenvalues --   -0.71579  -0.71084  -0.69039  -0.63481  -0.61511
 Alpha  occ. eigenvalues --   -0.59326  -0.57685  -0.55725  -0.54308  -0.50627
 Alpha  occ. eigenvalues --   -0.49967  -0.49593  -0.48973  -0.47788  -0.47575
 Alpha  occ. eigenvalues --   -0.46220  -0.45471  -0.44274  -0.43694  -0.43285
 Alpha  occ. eigenvalues --   -0.42903  -0.41107  -0.39992  -0.38016  -0.37667
 Alpha  occ. eigenvalues --   -0.36271  -0.35752  -0.35355  -0.34389  -0.34218
 Alpha  occ. eigenvalues --   -0.33699  -0.31687  -0.31283  -0.30224  -0.29843
 Alpha  occ. eigenvalues --   -0.28766  -0.26327  -0.22920  -0.19992
 Alpha virt. eigenvalues --   -0.02523   0.00212   0.00628   0.04314   0.06235
 Alpha virt. eigenvalues --    0.06538   0.07223   0.09138   0.09244   0.10776
 Alpha virt. eigenvalues --    0.11248   0.11677   0.12077   0.13012   0.14026

 Mulliken atomic charges:
              1
     1  C    0.267888
     2  C   -0.004190
     3  C    0.101493
     4  C    0.337498
     5  C   -0.263004
     6  C    0.131127
     7  C    0.011865
     8  C   -0.187281
     9  N   -0.715101
    10  O   -0.508157
    11  H    0.155698
    12  H    0.151817
    13  C   -0.385148
    14  Br  -0.135228
    15  H    0.149138
    16  H    0.331756
    17  C   -0.464318
    18  H    0.186386
    19  H    0.194830
    20  S    1.199055
    21  H    0.214352
    22  H    0.210560
    23  O   -0.494914
    24  O   -0.529248
    25  O   -0.649976
    26  H    0.438536
    27  C   -0.215195
    28  H    0.173102
    29  H    0.148115
    30  H    0.148545
 Sum of Mulliken charges=   0.00000

 Dipole moment (field-independent basis, Debye):
    X=    -6.6541    Y=     2.2329    Z=     2.7972  Tot=     7.5556
 Quadrupole moment (field-independent basis, Debye-Ang):
   XX=   -97.4103   YY=  -125.1600   ZZ=  -124.9280
   XY=     5.2764   XZ=     6.2279   YZ=     1.0533

 Normal termination of Gaussian 03 at Wed Apr  6 05:45:43 2005.
