 Gaussian 03, Revision B.04,
 Gaussian 03:  x86-Linux-G03RevB.04 2-Jun-2003

 ----------------
 # BLYP/6-31g Opt
 ----------------

 ------
 silcon
 ------
 Symbolic Z-matrix:
 Charge =  0 Multiplicity = 1

 SCF Done:  E(RB-LYP) =  -578.964250529     A.U. after    5 cycles
 SCF Done:  E(RB-LYP) =  -578.968752864     A.U. after    5 cycles
 SCF Done:  E(RB-LYP) =  -578.969266519     A.U. after    5 cycles
 Optimization completed.
    -- Stationary point found.

                          Input orientation:
 ---------------------------------------------------------------------
 Center     Atomic     Atomic              Coordinates (Angstroms)
 Number     Number      Type              X           Y           Z
 ---------------------------------------------------------------------
    1         14             0        1.002596    0.571659    0.401528
    2         14             0       -1.002596   -0.571659   -0.401528
    3         -2             0        3.988105   -0.019832   -0.010155
    4         -2             0        2.010294    3.444750   -0.019396
    5         -2             0        2.008450    1.152241    3.245283
 ---------------------------------------------------------------------

 Alpha  occ. eigenvalues --  -65.46497 -65.46489  -5.04484  -5.04477  -3.46380
 Alpha  occ. eigenvalues --   -3.46379  -3.46379  -3.46353  -3.46353  -3.46353
 Alpha  occ. eigenvalues --   -0.55455  -0.12916  -0.12818  -0.12780
 Alpha virt. eigenvalues --   -0.07102  -0.03454  -0.03414  -0.03350   0.17593
 Alpha virt. eigenvalues --    0.51145   0.51291   0.51317   0.53372   0.76757
 Alpha virt. eigenvalues --    0.76842   0.76901

 Mulliken atomic charges:
              1
     1  Si   0.000000
     2  Si   0.000000
 Sum of Mulliken charges=   0.00000

 Dipole moment (field-independent basis, Debye):
    X=     0.0000    Y=     0.0000    Z=     0.0000  Tot=     0.0000
 1\1\GINC-NODE25\FOpt\RBLYP\6-31G\Si2\GHUTCHIS\03-Apr-2005\0\\# BLYP/6-
 31G OPT\\silcon\\0,1\Si,1.0025957971,0.5716587742,0.4015282132\Si,-1.0
 025957971,-0.5716587742,-0.4015282132\TV,3.9881052339,-0.0198324157,-0
 .0101552391\TV,2.0102937227,3.4447501006,-0.0193959183\TV,2.0084504362
 ,1.1522408447,3.245282964\\Version=x86-Linux-G03RevB.04\HF=-578.969266
 5\RMSD=3.757e-10\RMSF=3.291e-04\Dipole=0.,0.,0.\PG=C01 [X(Si2)]\\@

 HAPPINESS IS NOT HAVING WHAT YOU WANT --
 HAPPINESS IS WANTING WHAT YOU HAVE!

 Normal termination of Gaussian 03 at Sun Apr  3 00:36:08 2005.
